HEADER
"PSFversion" "1.00"
"V1v" "v1v"
"C0v" "c0v"
"V1n" "analogLib_vpulse_hspiceD"
"V0v" "v0v"
"C0n" "analogLib_cap_hspiceD"
"I4v" "xi4v"
"V0n" "analogLib_vdc_hspiceD"
"I4n" "myInverter"
