HEADER
"PSFversion" "1.00"
"INv" "inv"
"OUTv" "outv"
"gnd!v" "0v"
"vdd!v" "vdd!v"
